SPECGRID
	7 9 3  1  F /

COORD
20564306.722483 4258700.774030 1515.007690 20564289.633509 4258695.286855 1529.242065
20564336.106656 4258712.129022 1513.532837 20564320.288382 4258706.198633 1527.166260
20564364.549861 4258723.182733 1512.619995 20564349.709185 4258716.783533 1525.837769
20564392.236848 4258733.874857 1512.169678 20564378.191651 4258726.994990 1525.078979
20564419.617247 4258744.302219 1511.812622 20564406.375869 4258737.009009 1524.357788
20564446.689068 4258754.397965 1511.587769 20564434.302050 4258746.792309 1523.672485
20564473.544260 4258764.116956 1511.446045 20564462.092573 4258756.337821 1522.942139
20564500.249247 4258773.438797 1511.358521 20564489.819165 4258765.651260 1522.126465

20564305.643725 4258670.081048 1514.493408 20564288.625727 4258664.347382 1528.574341
20564335.591008 4258681.140099 1512.924194 20564319.886157 4258674.976494 1526.395630
20564364.499541 4258691.900364 1511.931396 20564349.693664 4258685.230836 1525.072021
20564392.588435 4258702.317575 1511.397095 20564378.463113 4258695.101327 1524.346802
20564420.279822 4258712.483605 1511.003906 20564406.874579 4258704.795483 1523.679932
20564447.602848 4258722.307186 1510.771973 20564435.076438 4258714.311663 1522.974976
20564474.703342 4258731.788533 1510.608765 20564463.024019 4258723.553337 1522.318848
20564501.625805 4258740.869778 1510.492554 20564490.899625 4258732.568484 1521.555542

20564304.949548 4258639.255263 1514.133545 20564287.946971 4258633.231304 1528.163574
20564335.376079 4258650.005359 1512.429565 20564319.597718 4258643.517893 1525.938721
20564364.656289 4258660.473356 1511.352905 20564349.694154 4258653.430562 1524.614014
20564393.008825 4258670.562708 1510.810913 20564378.783754 4258662.986720 1523.836060
20564420.975858 4258680.434132 1510.373413 20564407.464488 4258672.371516 1523.135010
20564448.583617 4258690.010075 1510.067017 20564435.833060 4258681.556222 1522.474731
20564475.938447 4258699.248460 1509.841919 20564463.948385 4258690.479009 1521.852417
20564503.086363 4258708.125704 1509.671631 20564491.930113 4258699.181570 1521.169800

20564304.599640 4258608.275832 1513.973633 20564287.576947 4258601.922776 1528.039673
20564335.344614 4258618.708154 1512.178345 20564319.465157 4258611.861898 1525.785889
20564364.873273 4258628.830888 1511.055908 20564349.891374 4258621.462632 1524.338989
20564393.528529 4258638.628632 1510.402832 20564379.163528 4258630.654901 1523.555420
20564421.783109 4258648.218358 1509.868530 20564408.007963 4258639.669207 1522.873779
20564449.652690 4258657.523652 1509.475220 20564436.532598 4258648.492824 1522.234985
20564477.164935 4258666.472038 1509.252319 20564464.868145 4258657.149483 1521.562500
20564504.470304 4258675.108784 1509.073730 20564493.034910 4258665.615050 1520.854370

20564304.593769 4258577.175135 1514.027466 20564287.574460 4258570.469684 1528.165894
20564335.506406 4258587.242430 1512.162842 20564319.584103 4258580.037381 1525.855225
20564365.295465 4258597.051243 1510.905518 20564350.052532 4258589.215534 1524.448975
20564394.202034 4258606.539818 1510.137817 20564379.417058 4258597.987812 1523.689941
20564422.583899 4258615.766233 1509.606201 20564408.488924 4258606.671554 1522.920410
20564450.600338 4258624.740519 1509.205444 20564437.229199 4258615.188976 1522.211182
20564478.328486 4258633.451569 1508.898926 20564465.751669 4258623.568884 1521.490601
20564505.844320 4258641.899714 1508.633423 20564494.052652 4258631.763785 1520.783813

20564304.929348 4258545.948628 1514.266479 20564287.898382 4258538.851063 1528.544312
20564335.957946 4258555.674398 1512.278320 20564319.807960 4258547.992223 1526.251953
20564365.770824 4258565.061440 1511.018799 20564350.348769 4258556.767817 1524.776245
20564394.750316 4258574.147385 1510.248413 20564379.851997 4258565.165225 1523.938721
20564423.329698 4258583.066536 1509.619507 20564409.052878 4258573.490053 1523.126587
20564451.565824 4258591.792224 1509.115967 20564437.934399 4258581.686963 1522.389160
20564479.493356 4258600.272317 1508.717651 20564466.556984 4258589.735900 1521.681885
20564507.186672 4258608.528708 1508.380005 20564494.988524 4258597.669199 1520.962646

20564305.502571 4258514.583108 1514.728271 20564288.589280 4258507.115095 1529.087280
20564336.394723 4258523.865261 1512.750977 20564320.335863 4258515.824600 1526.767700
20564366.304422 4258532.893666 1511.376587 20564350.861226 4258524.195649 1525.234253
20564395.411119 4258541.632310 1510.508667 20564380.362554 4258532.168965 1524.393066
20564424.145354 4258550.246651 1509.795776 20564409.606410 4258540.103206 1523.589600
20564452.519586 4258558.669703 1509.234497 20564438.603417 4258547.961606 1522.815308
20564480.530970 4258566.853904 1508.843018 20564467.387898 4258555.755949 1522.041016
20564508.336355 4258574.864537 1508.483398 20564495.968562 4258563.458973 1521.268921

20564306.373242 4258483.136633 1515.325562 20564289.645540 4258475.303285 1529.745117
20564337.083823 4258491.979000 1513.339478 20564321.152023 4258483.573853 1527.396973
20564367.015635 4258500.635473 1511.869629 20564351.533022 4258491.495817 1525.869873
20564396.160513 4258509.005658 1510.951416 20564381.015867 4258499.062512 1525.002197
20564424.909410 4258517.227932 1510.244995 20564410.299675 4258506.619115 1524.164185
20564453.353588 4258525.325952 1509.663086 20564439.376116 4258514.154072 1523.350098
20564481.514696 4258533.261641 1509.194824 20564468.272474 4258521.664601 1522.534302
20564509.462426 4258541.087672 1508.760742 20564496.970332 4258529.147344 1521.716064

20564307.519518 4258451.643414 1516.003662 20564290.989171 4258443.433974 1530.494141
20564337.963590 4258460.028474 1514.056885 20564322.189364 4258451.257108 1528.150024
20564367.761898 4258468.245233 1512.601807 20564352.466429 4258458.775245 1526.562134
20564396.903491 4258476.219398 1511.638794 20564381.879982 4258465.915374 1525.675537
20564425.708069 4258484.101940 1510.873047 20564411.152357 4258473.091415 1524.818848
20564454.244607 4258491.898263 1510.230103 20564440.261274 4258480.280831 1523.987549
20564482.494584 4258499.590520 1509.707153 20564469.178762 4258487.484114 1523.179810
20564510.544487 4258507.207268 1509.219116 20564497.917951 4258494.689896 1522.369873

20564308.817432 4258420.089958 1516.794434 20564292.568401 4258411.540547 1531.283325
20564338.836131 4258427.918675 1515.034912 20564323.531136 4258418.951871 1528.890991
20564368.603933 4258435.772808 1513.480103 20564353.623248 4258426.044590 1527.297241
20564397.745545 4258443.381804 1512.454956 20564382.937583 4258432.765176 1526.405884
20564426.577946 4258450.915467 1511.632324 20564412.144287 4258439.533882 1525.557617
20564455.157346 4258458.416362 1510.947632 20564441.214420 4258446.363239 1524.749146
20564483.411605 4258465.796384 1510.435669 20564470.131298 4258453.251922 1523.945435
20564511.480045 4258473.173740 1509.948364 20564498.903601 4258460.231420 1523.115356
/

ZCORN
1515.007690 1513.532837 1513.532837 1512.619995 1512.619995 1512.169678
1512.169678 1511.812622 1511.812622 1511.587769 1511.587769 1511.446045
1511.446045 1511.358521 
1514.493408 1512.924194 1512.924194 1511.931396 1511.931396 1511.397095
1511.397095 1511.003906 1511.003906 1510.771973 1510.771973 1510.608765
1510.608765 1510.492554 
1514.493408 1512.924194 1512.924194 1511.931396 1511.931396 1511.397095
1511.397095 1511.003906 1511.003906 1510.771973 1510.771973 1510.608765
1510.608765 1510.492554 
1514.133545 1512.429565 1512.429565 1511.352905 1511.352905 1510.810913
1510.810913 1510.373413 1510.373413 1510.067017 1510.067017 1509.841919
1509.841919 1509.671631
1514.133545 1512.429565 1512.429565 1511.352905 1511.352905 1510.810913
1510.810913 1510.373413 1510.373413 1510.067017 1510.067017 1509.841919
1509.841919 1509.671631
1513.973633 1512.178345 1512.178345 1511.055908 1511.055908 1510.402832
1510.402832 1509.868530 1509.868530 1509.475220 1509.475220 1509.252319
1509.252319 1509.073730
1513.973633 1512.178345 1512.178345 1511.055908 1511.055908 1510.402832
1510.402832 1509.868530 1509.868530 1509.475220 1509.475220 1509.252319
1509.252319 1509.073730
1514.027466 1512.162842 1512.162842 1510.905518 1510.905518 1510.137817
1510.137817 1509.606201 1509.606201 1509.205444 1509.205444 1508.898926
1508.898926 1508.633423
1514.027466 1512.162842 1512.162842 1510.905518 1510.905518 1510.137817
1510.137817 1509.606201 1509.606201 1509.205444 1509.205444 1508.898926
1508.898926 1508.633423
1514.266479 1512.278320 1512.278320 1511.018799 1511.018799 1510.248413
1510.248413 1509.619507 1509.619507 1509.115967 1509.115967 1508.717651
1508.717651 1508.380005
1514.266479 1512.278320 1512.278320 1511.018799 1511.018799 1510.248413
1510.248413 1509.619507 1509.619507 1509.115967 1509.115967 1508.717651
1508.717651 1508.380005
1514.728271 1512.750977 1512.750977 1511.376587 1511.376587 1510.508667
1510.508667 1509.795776 1509.795776 1509.234497 1509.234497 1508.843018
1508.843018 1508.483398
1514.728271 1512.750977 1512.750977 1511.376587 1511.376587 1510.508667
1510.508667 1509.795776 1509.795776 1509.234497 1509.234497 1508.843018
1508.843018 1508.483398
1515.325562 1513.339478 1513.339478 1511.869629 1511.869629 1510.951416
1510.951416 1510.244995 1510.244995 1509.663086 1509.663086 1509.194824
1509.194824 1508.760742
1515.325562 1513.339478 1513.339478 1511.869629 1511.869629 1510.951416
1510.951416 1510.244995 1510.244995 1509.663086 1509.663086 1509.194824
1509.194824 1508.760742
1516.003662 1514.056885 1514.056885 1512.601807 1512.601807 1511.638794
1511.638794 1510.873047 1510.873047 1510.230103 1510.230103 1509.707153
1509.707153 1509.219116
1516.003662 1514.056885 1514.056885 1512.601807 1512.601807 1511.638794
1511.638794 1510.873047 1510.873047 1510.230103 1510.230103 1509.707153
1509.707153 1509.219116
1516.794434 1515.034912 1515.034912 1513.480103 1513.480103 1512.454956
1512.454956 1511.632324 1511.632324 1510.947632 1510.947632 1510.435669
1510.435669 1509.948364
1515.719360 1514.214478 1514.214478 1513.280884 1513.280884 1512.815186
1512.815186 1512.439941 1512.439941 1512.192017 1512.192017 1512.020874
1512.020874 1511.896973
1515.197510 1513.597778 1513.597778 1512.588379 1512.588379 1512.044556
1512.044556 1511.637695 1511.637695 1511.382080 1511.382080 1511.194214
1511.194214 1511.045654
1515.197510 1513.597778 1513.597778 1512.588379 1512.588379 1512.044556
1512.044556 1511.637695 1511.637695 1511.382080 1511.382080 1511.194214
1511.194214 1511.045654
1514.835083 1513.104980 1513.104980 1512.015991 1512.015991 1511.462158
1511.462158 1511.011475 1511.011475 1510.687378 1510.687378 1510.442383
1510.442383 1510.246582
1514.835083 1513.104980 1513.104980 1512.015991 1512.015991 1511.462158
1511.462158 1511.011475 1511.011475 1510.687378 1510.687378 1510.442383
1510.442383 1510.246582
1514.676880 1512.858765 1512.858765 1511.720093 1511.720093 1511.060425
1511.060425 1510.518799 1510.518799 1510.113159 1510.113159 1509.867798
1509.867798 1509.662720
1514.676880 1512.858765 1512.858765 1511.720093 1511.720093 1511.060425
1511.060425 1510.518799 1510.518799 1510.113159 1510.113159 1509.867798
1509.867798 1509.662720
1514.734375 1512.847412 1512.847412 1511.582642 1511.582642 1510.815430
1510.815430 1510.271973 1510.271973 1509.855713 1509.855713 1509.528564
1509.528564 1509.240967
1514.734375 1512.847412 1512.847412 1511.582642 1511.582642 1510.815430
1510.815430 1510.271973 1510.271973 1509.855713 1509.855713 1509.528564
1509.528564 1509.240967
1514.980347 1512.977051 1512.977051 1511.706665 1511.706665 1510.932983
1510.932983 1510.294922 1510.294922 1509.779663 1509.779663 1509.365845
1509.365845 1509.009155
1514.980347 1512.977051 1512.977051 1511.706665 1511.706665 1510.932983
1510.932983 1510.294922 1510.294922 1509.779663 1509.779663 1509.365845
1509.365845 1509.009155
1515.446167 1513.451782 1513.451782 1512.069458 1512.069458 1511.202881
1511.202881 1510.485474 1510.485474 1509.913574 1509.913574 1509.502930
1509.502930 1509.122681
1515.446167 1513.451782 1513.451782 1512.069458 1512.069458 1511.202881
1511.202881 1510.485474 1510.485474 1509.913574 1509.913574 1509.502930
1509.502930 1509.122681
1516.046509 1514.042358 1514.042358 1512.569580 1512.569580 1511.653931
1511.653931 1510.940918 1510.940918 1510.347412 1510.347412 1509.861816
1509.861816 1509.408447
1516.046509 1514.042358 1514.042358 1512.569580 1512.569580 1511.653931
1511.653931 1510.940918 1510.940918 1510.347412 1510.347412 1509.861816
1509.861816 1509.408447
1516.728149 1514.761597 1514.761597 1513.299805 1513.299805 1512.340576
1512.340576 1511.570313 1511.570313 1510.917969 1510.917969 1510.380737
1510.380737 1509.876709
1516.728149 1514.761597 1514.761597 1513.299805 1513.299805 1512.340576
1512.340576 1511.570313 1511.570313 1510.917969 1510.917969 1510.380737
1510.380737 1509.876709
1517.518921 1515.727661 1515.727661 1514.170898 1514.170898 1513.152466
1513.152466 1512.328613 1512.328613 1511.637695 1511.637695 1511.111206
1511.111206 1510.606689
1515.719360 1514.214478 1514.214478 1513.280884 1513.280884 1512.815186
1512.815186 1512.439941 1512.439941 1512.192017 1512.192017 1512.020874
1512.020874 1511.896973
1515.197510 1513.597778 1513.597778 1512.588379 1512.588379 1512.044556
1512.044556 1511.637695 1511.637695 1511.382080 1511.382080 1511.194214
1511.194214 1511.045654
1515.197510 1513.597778 1513.597778 1512.588379 1512.588379 1512.044556
1512.044556 1511.637695 1511.637695 1511.382080 1511.382080 1511.194214
1511.194214 1511.045654
1514.835083 1513.104980 1513.104980 1512.015991 1512.015991 1511.462158
1511.462158 1511.011475 1511.011475 1510.687378 1510.687378 1510.442383
1510.442383 1510.246582
1514.835083 1513.104980 1513.104980 1512.015991 1512.015991 1511.462158
1511.462158 1511.011475 1511.011475 1510.687378 1510.687378 1510.442383
1510.442383 1510.246582
1514.676880 1512.858765 1512.858765 1511.720093 1511.720093 1511.060425
1511.060425 1510.518799 1510.518799 1510.113159 1510.113159 1509.867798
1509.867798 1509.662720
1514.676880 1512.858765 1512.858765 1511.720093 1511.720093 1511.060425
1511.060425 1510.518799 1510.518799 1510.113159 1510.113159 1509.867798
1509.867798 1509.662720
1514.734375 1512.847412 1512.847412 1511.582642 1511.582642 1510.815430
1510.815430 1510.271973 1510.271973 1509.855713 1509.855713 1509.528564
1509.528564 1509.240967
1514.734375 1512.847412 1512.847412 1511.582642 1511.582642 1510.815430
1510.815430 1510.271973 1510.271973 1509.855713 1509.855713 1509.528564
1509.528564 1509.240967
1514.980347 1512.977051 1512.977051 1511.706665 1511.706665 1510.932983
1510.932983 1510.294922 1510.294922 1509.779663 1509.779663 1509.365845
1509.365845 1509.009155
1514.980347 1512.977051 1512.977051 1511.706665 1511.706665 1510.932983
1510.932983 1510.294922 1510.294922 1509.779663 1509.779663 1509.365845
1509.365845 1509.009155
1515.446167 1513.451782 1513.451782 1512.069458 1512.069458 1511.202881
1511.202881 1510.485474 1510.485474 1509.913574 1509.913574 1509.502930
1509.502930 1509.122681
1515.446167 1513.451782 1513.451782 1512.069458 1512.069458 1511.202881
1511.202881 1510.485474 1510.485474 1509.913574 1509.913574 1509.502930
1509.502930 1509.122681
1516.046509 1514.042358 1514.042358 1512.569580 1512.569580 1511.653931
1511.653931 1510.940918 1510.940918 1510.347412 1510.347412 1509.861816
1509.861816 1509.408447
1516.046509 1514.042358 1514.042358 1512.569580 1512.569580 1511.653931
1511.653931 1510.940918 1510.940918 1510.347412 1510.347412 1509.861816
1509.861816 1509.408447
1516.728149 1514.761597 1514.761597 1513.299805 1513.299805 1512.340576
1512.340576 1511.570313 1511.570313 1510.917969 1510.917969 1510.380737
1510.380737 1509.876709
1516.728149 1514.761597 1514.761597 1513.299805 1513.299805 1512.340576
1512.340576 1511.570313 1511.570313 1510.917969 1510.917969 1510.380737
1510.380737 1509.876709
1517.518921 1515.727661 1515.727661 1514.170898 1514.170898 1513.152466
1513.152466 1512.328613 1512.328613 1511.637695 1511.637695 1511.111206
1511.111206 1510.606689
1516.431152 1514.896240 1514.896240 1513.941772 1513.941772 1513.460571
1513.460571 1513.067139 1513.067139 1512.796265 1512.796265 1512.595703
1512.595703 1512.435303
1515.901489 1514.271362 1514.271362 1513.245483 1513.245483 1512.692017
1512.692017 1512.271484 1512.271484 1511.992310 1511.992310 1511.779785
1511.779785 1511.598877
1515.901489 1514.271362 1514.271362 1513.245483 1513.245483 1512.692017
1512.692017 1512.271484 1512.271484 1511.992310 1511.992310 1511.779785
1511.779785 1511.598877
1515.536499 1513.780518 1513.780518 1512.678955 1512.678955 1512.113403
1512.113403 1511.649536 1511.649536 1511.307739 1511.307739 1511.042969
1511.042969 1510.821411
1515.536499 1513.780518 1513.780518 1512.678955 1512.678955 1512.113403
1512.113403 1511.649536 1511.649536 1511.307739 1511.307739 1511.042969
1511.042969 1510.821411
1515.380249 1513.539063 1513.539063 1512.384277 1512.384277 1511.718140
1511.718140 1511.169067 1511.169067 1510.751221 1510.751221 1510.483398
1510.483398 1510.251831
1515.380249 1513.539063 1513.539063 1512.384277 1512.384277 1511.718140
1511.718140 1511.169067 1511.169067 1510.751221 1510.751221 1510.483398
1510.483398 1510.251831
1515.441284 1513.532104 1513.532104 1512.259888 1512.259888 1511.493042
1511.493042 1510.937622 1510.937622 1510.505981 1510.505981 1510.158081
1510.158081 1509.848511
1515.441284 1513.532104 1513.532104 1512.259888 1512.259888 1511.493042
1511.493042 1510.937622 1510.937622 1510.505981 1510.505981 1510.158081
1510.158081 1509.848511
1515.694214 1513.675659 1513.675659 1512.394531 1512.394531 1511.617432
1511.617432 1510.970215 1510.970215 1510.443237 1510.443237 1510.014038
1510.014038 1509.638306
1515.694214 1513.675659 1513.675659 1512.394531 1512.394531 1511.617432
1511.617432 1510.970215 1510.970215 1510.443237 1510.443237 1510.014038
1510.014038 1509.638306
1516.164185 1514.152588 1514.152588 1512.762329 1512.762329 1511.897095
1511.897095 1511.175171 1511.175171 1510.592529 1510.592529 1510.162842
1510.162842 1509.761963
1516.164185 1514.152588 1514.152588 1512.762329 1512.762329 1511.897095
1511.897095 1511.175171 1511.175171 1510.592529 1510.592529 1510.162842
1510.162842 1509.761963
1516.767578 1514.745239 1514.745239 1513.269653 1513.269653 1512.356445
1512.356445 1511.636963 1511.636963 1511.031738 1511.031738 1510.528809
1510.528809 1510.056274
1516.767578 1514.745239 1514.745239 1513.269653 1513.269653 1512.356445
1512.356445 1511.636963 1511.636963 1511.031738 1511.031738 1510.528809
1510.528809 1510.056274
1517.452759 1515.466187 1515.466187 1513.997803 1513.997803 1513.042480
1513.042480 1512.267578 1512.267578 1511.605835 1511.605835 1511.054443
1511.054443 1510.534180
1517.452759 1515.466187 1515.466187 1513.997803 1513.997803 1513.042480
1513.042480 1512.267578 1512.267578 1511.605835 1511.605835 1511.054443
1511.054443 1510.534180 
1518.243286 1516.420532 1516.420532 1514.861816 1514.861816 1513.850098
1513.850098 1513.024902 1513.024902 1512.327759 1512.327759 1511.786621
1511.786621 1511.265015
1516.431152 1514.896240 1514.896240 1513.941772 1513.941772 1513.460571
1513.460571 1513.067139 1513.067139 1512.796265 1512.796265 1512.595703
1512.595703 1512.435303
1515.901489 1514.271362 1514.271362 1513.245483 1513.245483 1512.692017
1512.692017 1512.271484 1512.271484 1511.992310 1511.992310 1511.779785
1511.779785 1511.598877
1515.901489 1514.271362 1514.271362 1513.245483 1513.245483 1512.692017
1512.692017 1512.271484 1512.271484 1511.992310 1511.992310 1511.779785
1511.779785 1511.598877
1515.536499 1513.780518 1513.780518 1512.678955 1512.678955 1512.113403
1512.113403 1511.649536 1511.649536 1511.307739 1511.307739 1511.042969
1511.042969 1510.821411
1515.536499 1513.780518 1513.780518 1512.678955 1512.678955 1512.113403
1512.113403 1511.649536 1511.649536 1511.307739 1511.307739 1511.042969
1511.042969 1510.821411
1515.380249 1513.539063 1513.539063 1512.384277 1512.384277 1511.718140
1511.718140 1511.169067 1511.169067 1510.751221 1510.751221 1510.483398
1510.483398 1510.251831
1515.380249 1513.539063 1513.539063 1512.384277 1512.384277 1511.718140
1511.718140 1511.169067 1511.169067 1510.751221 1510.751221 1510.483398
1510.483398 1510.251831
1515.441284 1513.532104 1513.532104 1512.259888 1512.259888 1511.493042
1511.493042 1510.937622 1510.937622 1510.505981 1510.505981 1510.158081
1510.158081 1509.848511
1515.441284 1513.532104 1513.532104 1512.259888 1512.259888 1511.493042
1511.493042 1510.937622 1510.937622 1510.505981 1510.505981 1510.158081
1510.158081 1509.848511
1515.694214 1513.675659 1513.675659 1512.394531 1512.394531 1511.617432
1511.617432 1510.970215 1510.970215 1510.443237 1510.443237 1510.014038
1510.014038 1509.638306
1515.694214 1513.675659 1513.675659 1512.394531 1512.394531 1511.617432
1511.617432 1510.970215 1510.970215 1510.443237 1510.443237 1510.014038
1510.014038 1509.638306
1516.164185 1514.152588 1514.152588 1512.762329 1512.762329 1511.897095
1511.897095 1511.175171 1511.175171 1510.592529 1510.592529 1510.162842
1510.162842 1509.761963
1516.164185 1514.152588 1514.152588 1512.762329 1512.762329 1511.897095
1511.897095 1511.175171 1511.175171 1510.592529 1510.592529 1510.162842
1510.162842 1509.761963
1516.767578 1514.745239 1514.745239 1513.269653 1513.269653 1512.356445
1512.356445 1511.636963 1511.636963 1511.031738 1511.031738 1510.528809
1510.528809 1510.056274
1516.767578 1514.745239 1514.745239 1513.269653 1513.269653 1512.356445
1512.356445 1511.636963 1511.636963 1511.031738 1511.031738 1510.528809
1510.528809 1510.056274
1517.452759 1515.466187 1515.466187 1513.997803 1513.997803 1513.042480
1513.042480 1512.267578 1512.267578 1511.605835 1511.605835 1511.054443
1511.054443 1510.534180
1517.452759 1515.466187 1515.466187 1513.997803 1513.997803 1513.042480
1513.042480 1512.267578 1512.267578 1511.605835 1511.605835 1511.054443
1511.054443 1510.534180
1518.243286 1516.420532 1516.420532 1514.861816 1514.861816 1513.850098
1513.850098 1513.024902 1513.024902 1512.327759 1512.327759 1511.786621
1511.786621 1511.265015
1517.142822 1515.577881 1515.577881 1514.602661 1514.602661 1514.106079
1514.106079 1513.694336 1513.694336 1513.400513 1513.400513 1513.170410
1513.170410 1512.973755
1516.605591 1514.944946 1514.944946 1513.902466 1513.902466 1513.339600
1513.339600 1512.905273 1512.905273 1512.602417 1512.602417 1512.365234
1512.365234 1512.151978
1516.605591 1514.944946 1514.944946 1513.902466 1513.902466 1513.339600
1513.339600 1512.905273 1512.905273 1512.602417 1512.602417 1512.365234
1512.365234 1512.151978
1516.238037 1514.455933 1514.455933 1513.342041 1513.342041 1512.764648
1512.764648 1512.287598 1512.287598 1511.928223 1511.928223 1511.643555
1511.643555 1511.396362
1516.238037 1514.455933 1514.455933 1513.342041 1513.342041 1512.764648
1512.764648 1512.287598 1512.287598 1511.928223 1511.928223 1511.643555
1511.643555 1511.396362
1516.083496 1514.219482 1514.219482 1513.048340 1513.048340 1512.375732
1512.375732 1511.819336 1511.819336 1511.389160 1511.389160 1511.098877
1511.098877 1510.840820
1516.083496 1514.219482 1514.219482 1513.048340 1513.048340 1512.375732
1512.375732 1511.819336 1511.819336 1511.389160 1511.389160 1511.098877
1511.098877 1510.840820
1516.148193 1514.216675 1514.216675 1512.937012 1512.937012 1512.170654
1512.170654 1511.603271 1511.603271 1511.156250 1511.156250 1510.787720
1510.787720 1510.455933
1516.148193 1514.216675 1514.216675 1512.937012 1512.937012 1512.170654
1512.170654 1511.603271 1511.603271 1511.156250 1511.156250 1510.787720
1510.787720 1510.455933
1516.408203 1514.374390 1514.374390 1513.082397 1513.082397 1512.302002
1512.302002 1511.645508 1511.645508 1511.106934 1511.106934 1510.662231
1510.662231 1510.267456
1516.408203 1514.374390 1514.374390 1513.082397 1513.082397 1512.302002
1512.302002 1511.645508 1511.645508 1511.106934 1511.106934 1510.662231
1510.662231 1510.267456
1516.882080 1514.853516 1514.853516 1513.455200 1513.455200 1512.591309
1512.591309 1511.864868 1511.864868 1511.271606 1511.271606 1510.822754
1510.822754 1510.401245
1516.882080 1514.853516 1514.853516 1513.455200 1513.455200 1512.591309
1512.591309 1511.864868 1511.864868 1511.271606 1511.271606 1510.822754
1510.822754 1510.401245
1517.488525 1515.448120 1515.448120 1513.969727 1513.969727 1513.059082
1513.059082 1512.332886 1512.332886 1511.716187 1511.716187 1511.195801
1511.195801 1510.704102
1517.488525 1515.448120 1515.448120 1513.969727 1513.969727 1513.059082
1513.059082 1512.332886 1512.332886 1511.716187 1511.716187 1511.195801
1511.195801 1510.704102 
1518.177246 1516.170898 1516.170898 1514.695801 1514.695801 1513.744263
1513.744263 1512.964966 1512.964966 1512.293701 1512.293701 1511.728027
1511.728027 1511.191772
1518.177246 1516.170898 1516.170898 1514.695801 1514.695801 1513.744263
1513.744263 1512.964966 1512.964966 1512.293701 1512.293701 1511.728027
1511.728027 1511.191772
1518.967773 1517.113281 1517.113281 1515.552734 1515.552734 1514.547607
1514.547607 1513.721069 1513.721069 1513.017822 1513.017822 1512.462158
1512.462158 1511.923462
/

ACTNUM
1 1 1 1 1 1 1 1 1 1 1 1 1 1 1 1 1 1 1 1 1 1 1 1 1
1 1 1 1 1 1 1 1 1 1 1 1 1 1 1 1 1 1 1 1 1 1 1 1 1
1 1 1 1 1 1 1 1 1 1 1 1 1 
1 1 1 1 1 1 1 1 1 1 1 1 1 1 1 1 1 1 1 1 1 1 1 1 1
1 1 1 1 1 1 1 1 1 1 1 1 1 1 1 1 1 1 1 1 1 1 1 1 1
1 1 1 1 1 1 1 1 1 1 1 1 1 
1 1 1 1 1 1 1 1 1 1 1 1 1 1 1 1 1 1 1 1 1 1 1 1 1
1 1 1 1 1 1 1 1 1 1 1 1 1 1 1 1 1 1 1 1 1 1 1 1 1
1 1 1 1 1 1 1 1 1 1 1 1 1 
/